
#(C) 2021 by FIZ Karlsruhe - Leibniz Institute for Information Infrastructure.  All rights reserved.
data_167480-ICSD
_database_code_ICSD 167480
_audit_creation_date 2011-02-01
_audit_update_record 2013-08-01
_chemical_name_common 'Lanthanum trihydroxide'
_chemical_formula_structural 'La (O H)3'
_chemical_formula_sum 'H3 La1 O3'
_chemical_name_structure_type UCl3
_exptl_crystal_density_diffrn 4.44
_citation_title
'Localization of hydrogen atoms in rare earth metal trihydroxides R (O H)3'
loop_
_citation_id
_citation_journal_full
_citation_year
_citation_journal_volume
_citation_page_first
_citation_page_last
_citation_journal_id_ASTM
primary 'Physica Status Solidi A: Applied Research' 1993 140 K59 K62 PSSABA
loop_
_citation_author_citation_id
_citation_author_name
primary 'Khidirov, I.'
primary 'Om, V.T.'
_cell_length_a 6.529(6)
_cell_length_b 6.529(6)
_cell_length_c 3.852(3)
_cell_angle_alpha 90.
_cell_angle_beta 90.
_cell_angle_gamma 120.
_cell_volume 142.2
_cell_formula_units_Z 2
_space_group_name_H-M_alt 'P 63/m'
_space_group_IT_number 176
loop_
_space_group_symop_id
_space_group_symop_operation_xyz
1 '-x+y, -x, -z+1/2'
2 '-y, x-y, -z+1/2'
3 'x, y, -z+1/2'
4 'x-y, x, -z'
5 'y, -x+y, -z'
6 '-x, -y, -z'
7 'x-y, x, z+1/2'
8 'y, -x+y, z+1/2'
9 '-x, -y, z+1/2'
10 '-x+y, -x, z'
11 '-y, x-y, z'
12 'x, y, z'
loop_
_atom_type_symbol
_atom_type_oxidation_number
La3+ 3
O2- -2
H1+ 1
loop_
_atom_site_label
_atom_site_type_symbol
_atom_site_symmetry_multiplicity
_atom_site_Wyckoff_symbol
_atom_site_fract_x
_atom_site_fract_y
_atom_site_fract_z
_atom_site_B_iso_or_equiv
_atom_site_occupancy
La1 La3+ 2 d 0.3333 0.6667 0.75 . 1.
O1 O2- 6 h 0.300(2) 0.385(2) 0.25 . 1.
H1 H1+ 6 h 0.160(3) 0.288(4) 0.25 . 1.
#End of TTdata_167480-ICSD