
#(C) 2021 by FIZ Karlsruhe - Leibniz Institute for Information Infrastructure.  All rights reserved.
data_9138-ICSD
_database_code_ICSD 9138
_audit_creation_date 1980-01-01
_audit_update_record 2012-02-01
_chemical_name_common 'Lithium hydroxide hydrate'
_chemical_formula_structural 'Li (O H) (H2 O)'
_chemical_formula_sum 'H3 Li1 O2'
_chemical_name_structure_type LiOHH2O
_exptl_crystal_density_diffrn 1.53
_citation_title
'Refinement of the crystal structure of lithium hydroxide monohydrate'
loop_
_citation_id
_citation_journal_full
_citation_year
_citation_journal_volume
_citation_page_first
_citation_page_last
_citation_journal_id_ASTM
primary

;
Acta Crystallographica, Section B: Structural Crystallography and Crystal
Chemistry
; 1971 27 1682 1683 ACBCAR
loop_
_citation_author_citation_id
_citation_author_name
primary 'Alcock, N.W.'
_cell_length_a 7.37
_cell_length_b 8.26
_cell_length_c 3.19
_cell_angle_alpha 90.
_cell_angle_beta 110.3
_cell_angle_gamma 90.
_cell_volume 182.13
_cell_formula_units_Z 4
_space_group_name_H-M_alt 'C 1 2/m 1'
_space_group_IT_number 12
loop_
_space_group_symop_id
_space_group_symop_operation_xyz
1 '-x, y, -z'
2 '-x, -y, -z'
3 'x, -y, z'
4 'x, y, z'
5 '-x+1/2, y+1/2, -z'
6 '-x+1/2, -y+1/2, -z'
7 'x+1/2, -y+1/2, z'
8 'x+1/2, y+1/2, z'
loop_
_atom_type_symbol
_atom_type_oxidation_number
Li1+ 1
O2- -2
H1+ 1
loop_
_atom_site_label
_atom_site_type_symbol
_atom_site_symmetry_multiplicity
_atom_site_Wyckoff_symbol
_atom_site_fract_x
_atom_site_fract_y
_atom_site_fract_z
_atom_site_B_iso_or_equiv
_atom_site_occupancy
Li1 Li1+ 4 h 0 0.3474(11) 0.5 . 1.
O1 O2- 4 i 0.2857(5) 0 0.3952(12) . 1.
O2 O2- 4 g 0 0.2066(4) 0 . 1.
H1 H1+ 4 i 0.237(21) 0 0.631(61) 12.3 1.
H2 H1+ 8 j 0.107(12) 0.118(10) 0.004(38) 14. 1.
loop_
_atom_site_aniso_label
_atom_site_aniso_type_symbol
_atom_site_aniso_beta_11
_atom_site_aniso_beta_22
_atom_site_aniso_beta_33
_atom_site_aniso_beta_12
_atom_site_aniso_beta_13
_atom_site_aniso_beta_23
Li1 Li1+ 0.0082(14) 0.0046(10) 0.0543(99) 0 0.0056(31) 0
O1 O2- 0.0069(6) 0.0052(5) 0.0422(43) 0 0.0040(14) 0
O2 O2- 0.0107(8) 0.0059(5) 0.0396(42) 0 0.0069(14) 0
#End of TTdata_9138-ICSD