
#(C) 2021 by FIZ Karlsruhe - Leibniz Institute for Information Infrastructure.  All rights reserved.
data_27543-ICSD
_database_code_ICSD 27543
_audit_creation_date 1980-01-01
_audit_update_record 2012-08-01
_chemical_name_common 'Lithium hydroxide'
_chemical_formula_structural 'Li (O H)'
_chemical_formula_sum 'H1 Li1 O1'
_chemical_name_structure_type LiOH
_exptl_crystal_density_diffrn 1.46
_citation_title
'The electron distribution of the hydroxide ion in lithium hydroxide'
loop_
_citation_id
_citation_journal_full
_citation_year
_citation_journal_volume
_citation_page_first
_citation_page_last
_citation_journal_id_ASTM
primary

;
Acta Crystallographica, Section A: Crystal Physics, Diffraction, Theoretical
and General Crystallography
; 1978 34 542 547 ACACBN
loop_
_citation_author_citation_id
_citation_author_name
primary 'Mair, S.L.'
_cell_length_a 3.549
_cell_length_b 3.549
_cell_length_c 4.334
_cell_angle_alpha 90.
_cell_angle_beta 90.
_cell_angle_gamma 90.
_cell_volume 54.59
_cell_formula_units_Z 2
_space_group_name_H-M_alt 'P 4/n m m S'
_space_group_IT_number 129
loop_
_space_group_symop_id
_space_group_symop_operation_xyz
1 '-y+1/2, -x+1/2, z'
2 'y+1/2, x+1/2, z'
3 '-y, -x, -z'
4 'y, x, -z'
5 'y+1/2, -x+1/2, z'
6 '-y+1/2, x+1/2, z'
7 'y, -x, -z'
8 '-y, x, -z'
9 'x+1/2, -y+1/2, -z'
10 '-x+1/2, y+1/2, -z'
11 'x, -y, z'
12 '-x, y, z'
13 '-x+1/2, -y+1/2, -z'
14 'x+1/2, y+1/2, -z'
15 '-x, -y, z'
16 'x, y, z'
loop_
_atom_type_symbol
_atom_type_oxidation_number
Li1+ 1
O2- -2
H1+ 1
loop_
_atom_site_label
_atom_site_type_symbol
_atom_site_symmetry_multiplicity
_atom_site_Wyckoff_symbol
_atom_site_fract_x
_atom_site_fract_y
_atom_site_fract_z
_atom_site_B_iso_or_equiv
_atom_site_occupancy
Li1 Li1+ 2 a 0 0 0 . 1.
O1 O2- 2 c 0 0.5 0.1938(4) . 1.
H1 H1+ 2 c 0 0.5 0.410(1) . 1.
loop_
_atom_site_aniso_label
_atom_site_aniso_type_symbol
_atom_site_aniso_B_11
_atom_site_aniso_B_22
_atom_site_aniso_B_33
_atom_site_aniso_B_12
_atom_site_aniso_B_13
_atom_site_aniso_B_23
Li1 Li1+ 0.38(2) 0.38(2) 0.93(5) 0 0 0
O1 O2- 0.34(3) 0.34(3) 0.68(2) 0 0 0
H1 H1+ 1.28(4) 1.28(4) 0.85(4) 0 0 0
#End of TTdata_27543-ICSD